s 0.004423869 _10_ RTR  --- 0 message 32 [0 0 0 0] ------- [10:255 -1:255 32 0] 
r 0.006874073 _27_ RTR  --- 0 message 32 [0 ffffffff a 800] ------- [10:255 -1:255 32 0] 
r 0.006874375 _23_ RTR  --- 0 message 32 [0 ffffffff a 800] ------- [10:255 -1:255 32 0] 
r 0.006874402 _13_ RTR  --- 0 message 32 [0 ffffffff a 800] ------- [10:255 -1:255 32 0] 
r 0.006874420 _7_ RTR  --- 0 message 32 [0 ffffffff a 800] ------- [10:255 -1:255 32 0] 
r 0.006874463 _35_ RTR  --- 0 message 32 [0 ffffffff a 800] ------- [10:255 -1:255 32 0] 
r 0.006874511 _0_ RTR  --- 0 message 32 [0 ffffffff a 800] ------- [10:255 -1:255 32 0] 
r 0.006874512 _5_ RTR  --- 0 message 32 [0 ffffffff a 800] ------- [10:255 -1:255 32 0] 
r 0.006874558 _28_ RTR  --- 0 message 32 [0 ffffffff a 800] ------- [10:255 -1:255 32 0] 
r 0.006874585 _18_ RTR  --- 0 message 32 [0 ffffffff a 800] ------- [10:255 -1:255 32 0] 
r 0.006874594 _16_ RTR  --- 0 message 32 [0 ffffffff a 800] ------- [10:255 -1:255 32 0] 
r 0.006874638 _39_ RTR  --- 0 message 32 [0 ffffffff a 800] ------- [10:255 -1:255 32 0] 
r 0.006874674 _6_ RTR  --- 0 message 32 [0 ffffffff a 800] ------- [10:255 -1:255 32 0] 
r 0.006874677 _33_ RTR  --- 0 message 32 [0 ffffffff a 800] ------- [10:255 -1:255 32 0] 
r 0.006874692 _9_ RTR  --- 0 message 32 [0 ffffffff a 800] ------- [10:255 -1:255 32 0] 
s 0.015668546 _18_ RTR  --- 1 message 32 [0 0 0 0] ------- [18:255 -1:255 32 0] 
r 0.019718894 _20_ RTR  --- 1 message 32 [0 ffffffff 12 800] ------- [18:255 -1:255 32 0] 
r 0.019718918 _35_ RTR  --- 1 message 32 [0 ffffffff 12 800] ------- [18:255 -1:255 32 0] 
r 0.019718930 _2_ RTR  --- 1 message 32 [0 ffffffff 12 800] ------- [18:255 -1:255 32 0] 
r 0.019718998 _39_ RTR  --- 1 message 32 [0 ffffffff 12 800] ------- [18:255 -1:255 32 0] 
r 0.019719041 _7_ RTR  --- 1 message 32 [0 ffffffff 12 800] ------- [18:255 -1:255 32 0] 
r 0.019719053 _16_ RTR  --- 1 message 32 [0 ffffffff 12 800] ------- [18:255 -1:255 32 0] 
r 0.019719058 _14_ RTR  --- 1 message 32 [0 ffffffff 12 800] ------- [18:255 -1:255 32 0] 
r 0.019719071 _37_ RTR  --- 1 message 32 [0 ffffffff 12 800] ------- [18:255 -1:255 32 0] 
r 0.019719193 _0_ RTR  --- 1 message 32 [0 ffffffff 12 800] ------- [18:255 -1:255 32 0] 
r 0.019719195 _33_ RTR  --- 1 message 32 [0 ffffffff 12 800] ------- [18:255 -1:255 32 0] 
r 0.019719225 _19_ RTR  --- 1 message 32 [0 ffffffff 12 800] ------- [18:255 -1:255 32 0] 
r 0.019719262 _10_ RTR  --- 1 message 32 [0 ffffffff 12 800] ------- [18:255 -1:255 32 0] 
r 0.019719287 _9_ RTR  --- 1 message 32 [0 ffffffff 12 800] ------- [18:255 -1:255 32 0] 
r 0.019719292 _17_ RTR  --- 1 message 32 [0 ffffffff 12 800] ------- [18:255 -1:255 32 0] 
r 0.019719303 _5_ RTR  --- 1 message 32 [0 ffffffff 12 800] ------- [18:255 -1:255 32 0] 
r 0.019719323 _30_ RTR  --- 1 message 32 [0 ffffffff 12 800] ------- [18:255 -1:255 32 0] 
r 0.019719326 _36_ RTR  --- 1 message 32 [0 ffffffff 12 800] ------- [18:255 -1:255 32 0] 
r 0.019719367 _23_ RTR  --- 1 message 32 [0 ffffffff 12 800] ------- [18:255 -1:255 32 0] 
r 0.019719368 _1_ RTR  --- 1 message 32 [0 ffffffff 12 800] ------- [18:255 -1:255 32 0] 
s 0.033579491 _31_ RTR  --- 2 message 32 [0 0 0 0] ------- [31:255 -1:255 32 0] 
r 0.036669638 _22_ RTR  --- 2 message 32 [0 ffffffff 1f 800] ------- [31:255 -1:255 32 0] 
r 0.036669781 _25_ RTR  --- 2 message 32 [0 ffffffff 1f 800] ------- [31:255 -1:255 32 0] 
r 0.036669826 _1_ RTR  --- 2 message 32 [0 ffffffff 1f 800] ------- [31:255 -1:255 32 0] 
r 0.036669849 _30_ RTR  --- 2 message 32 [0 ffffffff 1f 800] ------- [31:255 -1:255 32 0] 
r 0.036669885 _17_ RTR  --- 2 message 32 [0 ffffffff 1f 800] ------- [31:255 -1:255 32 0] 
r 0.036669935 _4_ RTR  --- 2 message 32 [0 ffffffff 1f 800] ------- [31:255 -1:255 32 0] 
r 0.036669936 _21_ RTR  --- 2 message 32 [0 ffffffff 1f 800] ------- [31:255 -1:255 32 0] 
r 0.036669952 _36_ RTR  --- 2 message 32 [0 ffffffff 1f 800] ------- [31:255 -1:255 32 0] 
r 0.036669961 _19_ RTR  --- 2 message 32 [0 ffffffff 1f 800] ------- [31:255 -1:255 32 0] 
r 0.036670026 _24_ RTR  --- 2 message 32 [0 ffffffff 1f 800] ------- [31:255 -1:255 32 0] 
r 0.036670103 _32_ RTR  --- 2 message 32 [0 ffffffff 1f 800] ------- [31:255 -1:255 32 0] 
r 0.036670109 _38_ RTR  --- 2 message 32 [0 ffffffff 1f 800] ------- [31:255 -1:255 32 0] 
r 0.036670110 _26_ RTR  --- 2 message 32 [0 ffffffff 1f 800] ------- [31:255 -1:255 32 0] 
r 0.036670144 _14_ RTR  --- 2 message 32 [0 ffffffff 1f 800] ------- [31:255 -1:255 32 0] 
r 0.036670208 _37_ RTR  --- 2 message 32 [0 ffffffff 1f 800] ------- [31:255 -1:255 32 0] 
r 0.036670240 _33_ RTR  --- 2 message 32 [0 ffffffff 1f 800] ------- [31:255 -1:255 32 0] 
r 0.036670263 _9_ RTR  --- 2 message 32 [0 ffffffff 1f 800] ------- [31:255 -1:255 32 0] 
r 0.036670282 _39_ RTR  --- 2 message 32 [0 ffffffff 1f 800] ------- [31:255 -1:255 32 0] 
r 0.036670313 _16_ RTR  --- 2 message 32 [0 ffffffff 1f 800] ------- [31:255 -1:255 32 0] 
s 0.065649705 _24_ RTR  --- 3 message 32 [0 0 0 0] ------- [24:255 -1:255 32 0] 
s 0.065979746 _15_ RTR  --- 4 message 32 [0 0 0 0] ------- [15:255 -1:255 32 0] 
r 0.069059818 _4_ RTR  --- 3 message 32 [0 ffffffff 18 800] ------- [24:255 -1:255 32 0] 
r 0.069059915 _26_ RTR  --- 3 message 32 [0 ffffffff 18 800] ------- [24:255 -1:255 32 0] 
r 0.069059935 _38_ RTR  --- 3 message 32 [0 ffffffff 18 800] ------- [24:255 -1:255 32 0] 
r 0.069060020 _25_ RTR  --- 3 message 32 [0 ffffffff 18 800] ------- [24:255 -1:255 32 0] 
r 0.069060055 _32_ RTR  --- 3 message 32 [0 ffffffff 18 800] ------- [24:255 -1:255 32 0] 
r 0.069060092 _36_ RTR  --- 3 message 32 [0 ffffffff 18 800] ------- [24:255 -1:255 32 0] 
r 0.069060165 _1_ RTR  --- 3 message 32 [0 ffffffff 18 800] ------- [24:255 -1:255 32 0] 
r 0.069060239 _17_ RTR  --- 3 message 32 [0 ffffffff 18 800] ------- [24:255 -1:255 32 0] 
r 0.069060239 _31_ RTR  --- 3 message 32 [0 ffffffff 18 800] ------- [24:255 -1:255 32 0] 
r 0.069060285 _22_ RTR  --- 3 message 32 [0 ffffffff 18 800] ------- [24:255 -1:255 32 0] 
r 0.069060301 _30_ RTR  --- 3 message 32 [0 ffffffff 18 800] ------- [24:255 -1:255 32 0] 
r 0.069069833 _12_ RTR  --- 4 message 32 [0 ffffffff f 800] ------- [15:255 -1:255 32 0] 
r 0.069070030 _11_ RTR  --- 4 message 32 [0 ffffffff f 800] ------- [15:255 -1:255 32 0] 
r 0.069070056 _3_ RTR  --- 4 message 32 [0 ffffffff f 800] ------- [15:255 -1:255 32 0] 
r 0.069070100 _8_ RTR  --- 4 message 32 [0 ffffffff f 800] ------- [15:255 -1:255 32 0] 
s 0.175162194 _11_ RTR  --- 5 message 32 [0 0 0 0] ------- [11:255 -1:255 32 0] 
r 0.179212253 _3_ RTR  --- 5 message 32 [0 ffffffff b 800] ------- [11:255 -1:255 32 0] 
r 0.179212452 _6_ RTR  --- 5 message 32 [0 ffffffff b 800] ------- [11:255 -1:255 32 0] 
r 0.179212478 _15_ RTR  --- 5 message 32 [0 ffffffff b 800] ------- [11:255 -1:255 32 0] 
r 0.179212565 _12_ RTR  --- 5 message 32 [0 ffffffff b 800] ------- [11:255 -1:255 32 0] 
r 0.179212573 _34_ RTR  --- 5 message 32 [0 ffffffff b 800] ------- [11:255 -1:255 32 0] 
r 0.179212587 _29_ RTR  --- 5 message 32 [0 ffffffff b 800] ------- [11:255 -1:255 32 0] 
r 0.179212601 _28_ RTR  --- 5 message 32 [0 ffffffff b 800] ------- [11:255 -1:255 32 0] 
r 0.179212722 _13_ RTR  --- 5 message 32 [0 ffffffff b 800] ------- [11:255 -1:255 32 0] 
r 0.179212766 _8_ RTR  --- 5 message 32 [0 ffffffff b 800] ------- [11:255 -1:255 32 0] 
r 0.179212779 _23_ RTR  --- 5 message 32 [0 ffffffff b 800] ------- [11:255 -1:255 32 0] 
r 0.179212788 _5_ RTR  --- 5 message 32 [0 ffffffff b 800] ------- [11:255 -1:255 32 0] 
r 0.179212855 _26_ RTR  --- 5 message 32 [0 ffffffff b 800] ------- [11:255 -1:255 32 0] 
r 0.179212876 _9_ RTR  --- 5 message 32 [0 ffffffff b 800] ------- [11:255 -1:255 32 0] 
r 0.179212902 _0_ RTR  --- 5 message 32 [0 ffffffff b 800] ------- [11:255 -1:255 32 0] 
r 0.179212926 _24_ RTR  --- 5 message 32 [0 ffffffff b 800] ------- [11:255 -1:255 32 0] 
r 0.179212975 _33_ RTR  --- 5 message 32 [0 ffffffff b 800] ------- [11:255 -1:255 32 0] 
r 0.179212976 _38_ RTR  --- 5 message 32 [0 ffffffff b 800] ------- [11:255 -1:255 32 0] 
s 0.246294621 _35_ RTR  --- 6 message 32 [0 0 0 0] ------- [35:255 -1:255 32 0] 
r 0.250984751 _7_ RTR  --- 6 message 32 [0 ffffffff 23 800] ------- [35:255 -1:255 32 0] 
r 0.250984794 _16_ RTR  --- 6 message 32 [0 ffffffff 23 800] ------- [35:255 -1:255 32 0] 
r 0.250984802 _39_ RTR  --- 6 message 32 [0 ffffffff 23 800] ------- [35:255 -1:255 32 0] 
r 0.250984877 _37_ RTR  --- 6 message 32 [0 ffffffff 23 800] ------- [35:255 -1:255 32 0] 
r 0.250984895 _0_ RTR  --- 6 message 32 [0 ffffffff 23 800] ------- [35:255 -1:255 32 0] 
r 0.250984931 _33_ RTR  --- 6 message 32 [0 ffffffff 23 800] ------- [35:255 -1:255 32 0] 
r 0.250984993 _18_ RTR  --- 6 message 32 [0 ffffffff 23 800] ------- [35:255 -1:255 32 0] 
r 0.250985007 _5_ RTR  --- 6 message 32 [0 ffffffff 23 800] ------- [35:255 -1:255 32 0] 
r 0.250985007 _9_ RTR  --- 6 message 32 [0 ffffffff 23 800] ------- [35:255 -1:255 32 0] 
r 0.250985102 _23_ RTR  --- 6 message 32 [0 ffffffff 23 800] ------- [35:255 -1:255 32 0] 
r 0.250985106 _20_ RTR  --- 6 message 32 [0 ffffffff 23 800] ------- [35:255 -1:255 32 0] 
r 0.250985142 _14_ RTR  --- 6 message 32 [0 ffffffff 23 800] ------- [35:255 -1:255 32 0] 
r 0.250985154 _36_ RTR  --- 6 message 32 [0 ffffffff 23 800] ------- [35:255 -1:255 32 0] 
r 0.250985208 _17_ RTR  --- 6 message 32 [0 ffffffff 23 800] ------- [35:255 -1:255 32 0] 
r 0.250985215 _10_ RTR  --- 6 message 32 [0 ffffffff 23 800] ------- [35:255 -1:255 32 0] 
r 0.250985229 _19_ RTR  --- 6 message 32 [0 ffffffff 23 800] ------- [35:255 -1:255 32 0] 
r 0.250985236 _13_ RTR  --- 6 message 32 [0 ffffffff 23 800] ------- [35:255 -1:255 32 0] 
r 0.250985247 _26_ RTR  --- 6 message 32 [0 ffffffff 23 800] ------- [35:255 -1:255 32 0] 
r 0.250985258 _1_ RTR  --- 6 message 32 [0 ffffffff 23 800] ------- [35:255 -1:255 32 0] 
r 0.250985277 _30_ RTR  --- 6 message 32 [0 ffffffff 23 800] ------- [35:255 -1:255 32 0] 
r 0.250985344 _29_ RTR  --- 6 message 32 [0 ffffffff 23 800] ------- [35:255 -1:255 32 0] 
r 0.250985349 _2_ RTR  --- 6 message 32 [0 ffffffff 23 800] ------- [35:255 -1:255 32 0] 
r 0.250985358 _27_ RTR  --- 6 message 32 [0 ffffffff 23 800] ------- [35:255 -1:255 32 0] 
r 0.250985422 _28_ RTR  --- 6 message 32 [0 ffffffff 23 800] ------- [35:255 -1:255 32 0] 
r 0.250985424 _6_ RTR  --- 6 message 32 [0 ffffffff 23 800] ------- [35:255 -1:255 32 0] 
r 0.250985448 _24_ RTR  --- 6 message 32 [0 ffffffff 23 800] ------- [35:255 -1:255 32 0] 
s 0.302266631 _6_ RTR  --- 7 message 32 [0 0 0 0] ------- [6:255 -1:255 32 0] 
r 0.305996793 _28_ RTR  --- 7 message 32 [0 ffffffff 6 800] ------- [6:255 -1:255 32 0] 
r 0.305996844 _3_ RTR  --- 7 message 32 [0 ffffffff 6 800] ------- [6:255 -1:255 32 0] 
r 0.305996889 _11_ RTR  --- 7 message 32 [0 ffffffff 6 800] ------- [6:255 -1:255 32 0] 
r 0.305996905 _13_ RTR  --- 7 message 32 [0 ffffffff 6 800] ------- [6:255 -1:255 32 0] 
r 0.305996985 _23_ RTR  --- 7 message 32 [0 ffffffff 6 800] ------- [6:255 -1:255 32 0] 
r 0.305997060 _5_ RTR  --- 7 message 32 [0 ffffffff 6 800] ------- [6:255 -1:255 32 0] 
r 0.305997066 _29_ RTR  --- 7 message 32 [0 ffffffff 6 800] ------- [6:255 -1:255 32 0] 
r 0.305997149 _15_ RTR  --- 7 message 32 [0 ffffffff 6 800] ------- [6:255 -1:255 32 0] 
r 0.305997170 _34_ RTR  --- 7 message 32 [0 ffffffff 6 800] ------- [6:255 -1:255 32 0] 
r 0.305997181 _0_ RTR  --- 7 message 32 [0 ffffffff 6 800] ------- [6:255 -1:255 32 0] 
r 0.305997221 _9_ RTR  --- 7 message 32 [0 ffffffff 6 800] ------- [6:255 -1:255 32 0] 
r 0.305997232 _12_ RTR  --- 7 message 32 [0 ffffffff 6 800] ------- [6:255 -1:255 32 0] 
r 0.305997299 _26_ RTR  --- 7 message 32 [0 ffffffff 6 800] ------- [6:255 -1:255 32 0] 
r 0.305997305 _7_ RTR  --- 7 message 32 [0 ffffffff 6 800] ------- [6:255 -1:255 32 0] 
r 0.305997306 _33_ RTR  --- 7 message 32 [0 ffffffff 6 800] ------- [6:255 -1:255 32 0] 
r 0.305997355 _27_ RTR  --- 7 message 32 [0 ffffffff 6 800] ------- [6:255 -1:255 32 0] 
r 0.305997379 _16_ RTR  --- 7 message 32 [0 ffffffff 6 800] ------- [6:255 -1:255 32 0] 
r 0.305997435 _24_ RTR  --- 7 message 32 [0 ffffffff 6 800] ------- [6:255 -1:255 32 0] 
r 0.305997435 _35_ RTR  --- 7 message 32 [0 ffffffff 6 800] ------- [6:255 -1:255 32 0] 
r 0.305997437 _10_ RTR  --- 7 message 32 [0 ffffffff 6 800] ------- [6:255 -1:255 32 0] 
r 0.305997460 _8_ RTR  --- 7 message 32 [0 ffffffff 6 800] ------- [6:255 -1:255 32 0] 
r 0.305997460 _37_ RTR  --- 7 message 32 [0 ffffffff 6 800] ------- [6:255 -1:255 32 0] 
s 0.347037762 _23_ RTR  --- 8 message 32 [0 0 0 0] ------- [23:255 -1:255 32 0] 
r 0.351087898 _13_ RTR  --- 8 message 32 [0 ffffffff 17 800] ------- [23:255 -1:255 32 0] 
r 0.351087965 _5_ RTR  --- 8 message 32 [0 ffffffff 17 800] ------- [23:255 -1:255 32 0] 
r 0.351088051 _0_ RTR  --- 8 message 32 [0 ffffffff 17 800] ------- [23:255 -1:255 32 0] 
r 0.351088082 _28_ RTR  --- 8 message 32 [0 ffffffff 17 800] ------- [23:255 -1:255 32 0] 
r 0.351088116 _6_ RTR  --- 8 message 32 [0 ffffffff 17 800] ------- [23:255 -1:255 32 0] 
r 0.351088116 _7_ RTR  --- 8 message 32 [0 ffffffff 17 800] ------- [23:255 -1:255 32 0] 
r 0.351088188 _9_ RTR  --- 8 message 32 [0 ffffffff 17 800] ------- [23:255 -1:255 32 0] 
r 0.351088230 _33_ RTR  --- 8 message 32 [0 ffffffff 17 800] ------- [23:255 -1:255 32 0] 
r 0.351088241 _16_ RTR  --- 8 message 32 [0 ffffffff 17 800] ------- [23:255 -1:255 32 0] 
r 0.351088244 _35_ RTR  --- 8 message 32 [0 ffffffff 17 800] ------- [23:255 -1:255 32 0] 
r 0.351088263 _27_ RTR  --- 8 message 32 [0 ffffffff 17 800] ------- [23:255 -1:255 32 0] 
r 0.351088269 _10_ RTR  --- 8 message 32 [0 ffffffff 17 800] ------- [23:255 -1:255 32 0] 
r 0.351088284 _29_ RTR  --- 8 message 32 [0 ffffffff 17 800] ------- [23:255 -1:255 32 0] 
r 0.351088290 _3_ RTR  --- 8 message 32 [0 ffffffff 17 800] ------- [23:255 -1:255 32 0] 
r 0.351088328 _39_ RTR  --- 8 message 32 [0 ffffffff 17 800] ------- [23:255 -1:255 32 0] 
r 0.351088346 _37_ RTR  --- 8 message 32 [0 ffffffff 17 800] ------- [23:255 -1:255 32 0] 
r 0.351088347 _11_ RTR  --- 8 message 32 [0 ffffffff 17 800] ------- [23:255 -1:255 32 0] 
r 0.351088390 _26_ RTR  --- 8 message 32 [0 ffffffff 17 800] ------- [23:255 -1:255 32 0] 
r 0.351088482 _34_ RTR  --- 8 message 32 [0 ffffffff 17 800] ------- [23:255 -1:255 32 0] 
r 0.351088509 _36_ RTR  --- 8 message 32 [0 ffffffff 17 800] ------- [23:255 -1:255 32 0] 
r 0.351088547 _15_ RTR  --- 8 message 32 [0 ffffffff 17 800] ------- [23:255 -1:255 32 0] 
r 0.351088583 _18_ RTR  --- 8 message 32 [0 ffffffff 17 800] ------- [23:255 -1:255 32 0] 
r 0.351088585 _24_ RTR  --- 8 message 32 [0 ffffffff 17 800] ------- [23:255 -1:255 32 0] 
s 0.424287326 _30_ RTR  --- 9 message 32 [0 0 0 0] ------- [30:255 -1:255 32 0] 
r 0.428657418 _17_ RTR  --- 9 message 32 [0 ffffffff 1e 800] ------- [30:255 -1:255 32 0] 
r 0.428657448 _19_ RTR  --- 9 message 32 [0 ffffffff 1e 800] ------- [30:255 -1:255 32 0] 
r 0.428657464 _1_ RTR  --- 9 message 32 [0 ffffffff 1e 800] ------- [30:255 -1:255 32 0] 
r 0.428657598 _36_ RTR  --- 9 message 32 [0 ffffffff 1e 800] ------- [30:255 -1:255 32 0] 
r 0.428657627 _14_ RTR  --- 9 message 32 [0 ffffffff 1e 800] ------- [30:255 -1:255 32 0] 
r 0.428657685 _31_ RTR  --- 9 message 32 [0 ffffffff 1e 800] ------- [30:255 -1:255 32 0] 
r 0.428657747 _37_ RTR  --- 9 message 32 [0 ffffffff 1e 800] ------- [30:255 -1:255 32 0] 
r 0.428657805 _39_ RTR  --- 9 message 32 [0 ffffffff 1e 800] ------- [30:255 -1:255 32 0] 
r 0.428657821 _20_ RTR  --- 9 message 32 [0 ffffffff 1e 800] ------- [30:255 -1:255 32 0] 
r 0.428657831 _22_ RTR  --- 9 message 32 [0 ffffffff 1e 800] ------- [30:255 -1:255 32 0] 
r 0.428657840 _33_ RTR  --- 9 message 32 [0 ffffffff 1e 800] ------- [30:255 -1:255 32 0] 
r 0.428657859 _25_ RTR  --- 9 message 32 [0 ffffffff 1e 800] ------- [30:255 -1:255 32 0] 
r 0.428657860 _16_ RTR  --- 9 message 32 [0 ffffffff 1e 800] ------- [30:255 -1:255 32 0] 
r 0.428657876 _26_ RTR  --- 9 message 32 [0 ffffffff 1e 800] ------- [30:255 -1:255 32 0] 
r 0.428657893 _4_ RTR  --- 9 message 32 [0 ffffffff 1e 800] ------- [30:255 -1:255 32 0] 
r 0.428657903 _9_ RTR  --- 9 message 32 [0 ffffffff 1e 800] ------- [30:255 -1:255 32 0] 
r 0.428657923 _24_ RTR  --- 9 message 32 [0 ffffffff 1e 800] ------- [30:255 -1:255 32 0] 
r 0.428657983 _35_ RTR  --- 9 message 32 [0 ffffffff 1e 800] ------- [30:255 -1:255 32 0] 
r 0.428658020 _0_ RTR  --- 9 message 32 [0 ffffffff 1e 800] ------- [30:255 -1:255 32 0] 
r 0.428658035 _7_ RTR  --- 9 message 32 [0 ffffffff 1e 800] ------- [30:255 -1:255 32 0] 
r 0.428658104 _18_ RTR  --- 9 message 32 [0 ffffffff 1e 800] ------- [30:255 -1:255 32 0] 
r 0.428658106 _38_ RTR  --- 9 message 32 [0 ffffffff 1e 800] ------- [30:255 -1:255 32 0] 
r 0.428658112 _21_ RTR  --- 9 message 32 [0 ffffffff 1e 800] ------- [30:255 -1:255 32 0] 
r 0.428658112 _5_ RTR  --- 9 message 32 [0 ffffffff 1e 800] ------- [30:255 -1:255 32 0] 
r 0.428658140 _29_ RTR  --- 9 message 32 [0 ffffffff 1e 800] ------- [30:255 -1:255 32 0] 
r 0.428658159 _32_ RTR  --- 9 message 32 [0 ffffffff 1e 800] ------- [30:255 -1:255 32 0] 
s 0.433706374 _37_ RTR  --- 10 message 32 [0 0 0 0] ------- [37:255 -1:255 32 0] 
r 0.436476455 _39_ RTR  --- 10 message 32 [0 ffffffff 25 800] ------- [37:255 -1:255 32 0] 
r 0.436476488 _16_ RTR  --- 10 message 32 [0 ffffffff 25 800] ------- [37:255 -1:255 32 0] 
r 0.436476537 _33_ RTR  --- 10 message 32 [0 ffffffff 25 800] ------- [37:255 -1:255 32 0] 
r 0.436476630 _35_ RTR  --- 10 message 32 [0 ffffffff 25 800] ------- [37:255 -1:255 32 0] 
r 0.436476638 _9_ RTR  --- 10 message 32 [0 ffffffff 25 800] ------- [37:255 -1:255 32 0] 
r 0.436476653 _36_ RTR  --- 10 message 32 [0 ffffffff 25 800] ------- [37:255 -1:255 32 0] 
r 0.436476662 _7_ RTR  --- 10 message 32 [0 ffffffff 25 800] ------- [37:255 -1:255 32 0] 
r 0.436476671 _0_ RTR  --- 10 message 32 [0 ffffffff 25 800] ------- [37:255 -1:255 32 0] 
r 0.436476716 _17_ RTR  --- 10 message 32 [0 ffffffff 25 800] ------- [37:255 -1:255 32 0] 
r 0.436476757 _1_ RTR  --- 10 message 32 [0 ffffffff 25 800] ------- [37:255 -1:255 32 0] 
r 0.436476758 _14_ RTR  --- 10 message 32 [0 ffffffff 25 800] ------- [37:255 -1:255 32 0] 
r 0.436476776 _19_ RTR  --- 10 message 32 [0 ffffffff 25 800] ------- [37:255 -1:255 32 0] 
r 0.436476784 _5_ RTR  --- 10 message 32 [0 ffffffff 25 800] ------- [37:255 -1:255 32 0] 
r 0.436476794 _30_ RTR  --- 10 message 32 [0 ffffffff 25 800] ------- [37:255 -1:255 32 0] 
r 0.436476807 _26_ RTR  --- 10 message 32 [0 ffffffff 25 800] ------- [37:255 -1:255 32 0] 
r 0.436476824 _20_ RTR  --- 10 message 32 [0 ffffffff 25 800] ------- [37:255 -1:255 32 0] 
r 0.436476900 _18_ RTR  --- 10 message 32 [0 ffffffff 25 800] ------- [37:255 -1:255 32 0] 
r 0.436476958 _23_ RTR  --- 10 message 32 [0 ffffffff 25 800] ------- [37:255 -1:255 32 0] 
r 0.436476983 _29_ RTR  --- 10 message 32 [0 ffffffff 25 800] ------- [37:255 -1:255 32 0] 
r 0.436476986 _24_ RTR  --- 10 message 32 [0 ffffffff 25 800] ------- [37:255 -1:255 32 0] 
r 0.436477034 _4_ RTR  --- 10 message 32 [0 ffffffff 25 800] ------- [37:255 -1:255 32 0] 
r 0.436477091 _31_ RTR  --- 10 message 32 [0 ffffffff 25 800] ------- [37:255 -1:255 32 0] 
r 0.436477092 _13_ RTR  --- 10 message 32 [0 ffffffff 25 800] ------- [37:255 -1:255 32 0] 
r 0.436477125 _25_ RTR  --- 10 message 32 [0 ffffffff 25 800] ------- [37:255 -1:255 32 0] 
r 0.436477171 _2_ RTR  --- 10 message 32 [0 ffffffff 25 800] ------- [37:255 -1:255 32 0] 
r 0.436477184 _34_ RTR  --- 10 message 32 [0 ffffffff 25 800] ------- [37:255 -1:255 32 0] 
r 0.436477203 _6_ RTR  --- 10 message 32 [0 ffffffff 25 800] ------- [37:255 -1:255 32 0] 
s 0.619696252 _17_ RTR  --- 11 message 32 [0 0 0 0] ------- [17:255 -1:255 32 0] 
r 0.622786338 _1_ RTR  --- 11 message 32 [0 ffffffff 11 800] ------- [17:255 -1:255 32 0] 
r 0.622786343 _30_ RTR  --- 11 message 32 [0 ffffffff 11 800] ------- [17:255 -1:255 32 0] 
r 0.622786417 _19_ RTR  --- 11 message 32 [0 ffffffff 11 800] ------- [17:255 -1:255 32 0] 
r 0.622786437 _36_ RTR  --- 11 message 32 [0 ffffffff 11 800] ------- [17:255 -1:255 32 0] 
r 0.622786565 _14_ RTR  --- 11 message 32 [0 ffffffff 11 800] ------- [17:255 -1:255 32 0] 
r 0.622786594 _37_ RTR  --- 11 message 32 [0 ffffffff 11 800] ------- [17:255 -1:255 32 0] 
r 0.622786646 _31_ RTR  --- 11 message 32 [0 ffffffff 11 800] ------- [17:255 -1:255 32 0] 
r 0.622786659 _39_ RTR  --- 11 message 32 [0 ffffffff 11 800] ------- [17:255 -1:255 32 0] 
r 0.622786676 _33_ RTR  --- 11 message 32 [0 ffffffff 11 800] ------- [17:255 -1:255 32 0] 
r 0.622786706 _16_ RTR  --- 11 message 32 [0 ffffffff 11 800] ------- [17:255 -1:255 32 0] 
r 0.622786719 _26_ RTR  --- 11 message 32 [0 ffffffff 11 800] ------- [17:255 -1:255 32 0] 
r 0.622786737 _9_ RTR  --- 11 message 32 [0 ffffffff 11 800] ------- [17:255 -1:255 32 0] 
r 0.622786748 _20_ RTR  --- 11 message 32 [0 ffffffff 11 800] ------- [17:255 -1:255 32 0] 
r 0.622786770 _25_ RTR  --- 11 message 32 [0 ffffffff 11 800] ------- [17:255 -1:255 32 0] 
r 0.622786772 _4_ RTR  --- 11 message 32 [0 ffffffff 11 800] ------- [17:255 -1:255 32 0] 
r 0.622786787 _24_ RTR  --- 11 message 32 [0 ffffffff 11 800] ------- [17:255 -1:255 32 0] 
r 0.622786791 _22_ RTR  --- 11 message 32 [0 ffffffff 11 800] ------- [17:255 -1:255 32 0] 
r 0.622786840 _35_ RTR  --- 11 message 32 [0 ffffffff 11 800] ------- [17:255 -1:255 32 0] 
r 0.622786858 _0_ RTR  --- 11 message 32 [0 ffffffff 11 800] ------- [17:255 -1:255 32 0] 
r 0.622786882 _7_ RTR  --- 11 message 32 [0 ffffffff 11 800] ------- [17:255 -1:255 32 0] 
r 0.622786948 _5_ RTR  --- 11 message 32 [0 ffffffff 11 800] ------- [17:255 -1:255 32 0] 
r 0.622786980 _29_ RTR  --- 11 message 32 [0 ffffffff 11 800] ------- [17:255 -1:255 32 0] 
r 0.622786984 _38_ RTR  --- 11 message 32 [0 ffffffff 11 800] ------- [17:255 -1:255 32 0] 
r 0.622786999 _18_ RTR  --- 11 message 32 [0 ffffffff 11 800] ------- [17:255 -1:255 32 0] 
r 0.622787051 _32_ RTR  --- 11 message 32 [0 ffffffff 11 800] ------- [17:255 -1:255 32 0] 
s 0.650767501 _19_ RTR  --- 12 message 32 [0 0 0 0] ------- [19:255 -1:255 32 0] 
r 0.655457623 _30_ RTR  --- 12 message 32 [0 ffffffff 13 800] ------- [19:255 -1:255 32 0] 
r 0.655457666 _17_ RTR  --- 12 message 32 [0 ffffffff 13 800] ------- [19:255 -1:255 32 0] 
r 0.655457684 _14_ RTR  --- 12 message 32 [0 ffffffff 13 800] ------- [19:255 -1:255 32 0] 
r 0.655457743 _1_ RTR  --- 12 message 32 [0 ffffffff 13 800] ------- [19:255 -1:255 32 0] 
r 0.655457841 _36_ RTR  --- 12 message 32 [0 ffffffff 13 800] ------- [19:255 -1:255 32 0] 
r 0.655457879 _20_ RTR  --- 12 message 32 [0 ffffffff 13 800] ------- [19:255 -1:255 32 0] 
r 0.655457903 _37_ RTR  --- 12 message 32 [0 ffffffff 13 800] ------- [19:255 -1:255 32 0] 
r 0.655457944 _39_ RTR  --- 12 message 32 [0 ffffffff 13 800] ------- [19:255 -1:255 32 0] 
r 0.655457971 _31_ RTR  --- 12 message 32 [0 ffffffff 13 800] ------- [19:255 -1:255 32 0] 
r 0.655458015 _16_ RTR  --- 12 message 32 [0 ffffffff 13 800] ------- [19:255 -1:255 32 0] 
r 0.655458027 _33_ RTR  --- 12 message 32 [0 ffffffff 13 800] ------- [19:255 -1:255 32 0] 
r 0.655458106 _9_ RTR  --- 12 message 32 [0 ffffffff 13 800] ------- [19:255 -1:255 32 0] 
r 0.655458110 _35_ RTR  --- 12 message 32 [0 ffffffff 13 800] ------- [19:255 -1:255 32 0] 
r 0.655458116 _22_ RTR  --- 12 message 32 [0 ffffffff 13 800] ------- [19:255 -1:255 32 0] 
r 0.655458126 _26_ RTR  --- 12 message 32 [0 ffffffff 13 800] ------- [19:255 -1:255 32 0] 
r 0.655458155 _25_ RTR  --- 12 message 32 [0 ffffffff 13 800] ------- [19:255 -1:255 32 0] 
r 0.655458180 _4_ RTR  --- 12 message 32 [0 ffffffff 13 800] ------- [19:255 -1:255 32 0] 
r 0.655458180 _18_ RTR  --- 12 message 32 [0 ffffffff 13 800] ------- [19:255 -1:255 32 0] 
r 0.655458182 _7_ RTR  --- 12 message 32 [0 ffffffff 13 800] ------- [19:255 -1:255 32 0] 
r 0.655458195 _0_ RTR  --- 12 message 32 [0 ffffffff 13 800] ------- [19:255 -1:255 32 0] 
r 0.655458200 _24_ RTR  --- 12 message 32 [0 ffffffff 13 800] ------- [19:255 -1:255 32 0] 
r 0.655458255 _2_ RTR  --- 12 message 32 [0 ffffffff 13 800] ------- [19:255 -1:255 32 0] 
r 0.655458299 _5_ RTR  --- 12 message 32 [0 ffffffff 13 800] ------- [19:255 -1:255 32 0] 
s 0.669920967 _34_ RTR  --- 13 message 32 [0 0 0 0] ------- [34:255 -1:255 32 0] 
s 0.671182630 _12_ RTR  --- 14 message 32 [0 0 0 0] ------- [12:255 -1:255 32 0] 
r 0.673651165 _12_ RTR  --- 13 message 32 [0 ffffffff 22 800] ------- [34:255 -1:255 32 0] 
r 0.673651168 _15_ RTR  --- 13 message 32 [0 ffffffff 22 800] ------- [34:255 -1:255 32 0] 
r 0.673651190 _29_ RTR  --- 13 message 32 [0 ffffffff 22 800] ------- [34:255 -1:255 32 0] 
r 0.673651339 _3_ RTR  --- 13 message 32 [0 ffffffff 22 800] ------- [34:255 -1:255 32 0] 
r 0.673651346 _11_ RTR  --- 13 message 32 [0 ffffffff 22 800] ------- [34:255 -1:255 32 0] 
r 0.673651356 _24_ RTR  --- 13 message 32 [0 ffffffff 22 800] ------- [34:255 -1:255 32 0] 
r 0.673651371 _38_ RTR  --- 13 message 32 [0 ffffffff 22 800] ------- [34:255 -1:255 32 0] 
r 0.673651375 _26_ RTR  --- 13 message 32 [0 ffffffff 22 800] ------- [34:255 -1:255 32 0] 
r 0.673651452 _4_ RTR  --- 13 message 32 [0 ffffffff 22 800] ------- [34:255 -1:255 32 0] 
r 0.673651478 _8_ RTR  --- 13 message 32 [0 ffffffff 22 800] ------- [34:255 -1:255 32 0] 
r 0.673651500 _32_ RTR  --- 13 message 32 [0 ffffffff 22 800] ------- [34:255 -1:255 32 0] 
r 0.673651507 _6_ RTR  --- 13 message 32 [0 ffffffff 22 800] ------- [34:255 -1:255 32 0] 
r 0.673651532 _9_ RTR  --- 13 message 32 [0 ffffffff 22 800] ------- [34:255 -1:255 32 0] 
r 0.673651580 _5_ RTR  --- 13 message 32 [0 ffffffff 22 800] ------- [34:255 -1:255 32 0] 
r 0.673651628 _33_ RTR  --- 13 message 32 [0 ffffffff 22 800] ------- [34:255 -1:255 32 0] 
r 0.673651647 _25_ RTR  --- 13 message 32 [0 ffffffff 22 800] ------- [34:255 -1:255 32 0] 
r 0.673651651 _0_ RTR  --- 13 message 32 [0 ffffffff 22 800] ------- [34:255 -1:255 32 0] 
r 0.673651658 _36_ RTR  --- 13 message 32 [0 ffffffff 22 800] ------- [34:255 -1:255 32 0] 
r 0.673651667 _28_ RTR  --- 13 message 32 [0 ffffffff 22 800] ------- [34:255 -1:255 32 0] 
r 0.673651687 _23_ RTR  --- 13 message 32 [0 ffffffff 22 800] ------- [34:255 -1:255 32 0] 
r 0.673651701 _13_ RTR  --- 13 message 32 [0 ffffffff 22 800] ------- [34:255 -1:255 32 0] 
r 0.673651766 _16_ RTR  --- 13 message 32 [0 ffffffff 22 800] ------- [34:255 -1:255 32 0] 
r 0.673651777 _1_ RTR  --- 13 message 32 [0 ffffffff 22 800] ------- [34:255 -1:255 32 0] 
r 0.673651777 _37_ RTR  --- 13 message 32 [0 ffffffff 22 800] ------- [34:255 -1:255 32 0] 
r 0.677280717 _15_ RTR  --- 14 message 32 [0 ffffffff c 800] ------- [12:255 -1:255 32 0] 
r 0.677280828 _34_ RTR  --- 14 message 32 [0 ffffffff c 800] ------- [12:255 -1:255 32 0] 
r 0.677280945 _8_ RTR  --- 14 message 32 [0 ffffffff c 800] ------- [12:255 -1:255 32 0] 
r 0.677281001 _11_ RTR  --- 14 message 32 [0 ffffffff c 800] ------- [12:255 -1:255 32 0] 
r 0.677281025 _3_ RTR  --- 14 message 32 [0 ffffffff c 800] ------- [12:255 -1:255 32 0] 
r 0.677281036 _29_ RTR  --- 14 message 32 [0 ffffffff c 800] ------- [12:255 -1:255 32 0] 
r 0.677281133 _38_ RTR  --- 14 message 32 [0 ffffffff c 800] ------- [12:255 -1:255 32 0] 
r 0.677281189 _24_ RTR  --- 14 message 32 [0 ffffffff c 800] ------- [12:255 -1:255 32 0] 
r 0.677281231 _6_ RTR  --- 14 message 32 [0 ffffffff c 800] ------- [12:255 -1:255 32 0] 
r 0.677281234 _32_ RTR  --- 14 message 32 [0 ffffffff c 800] ------- [12:255 -1:255 32 0] 
r 0.677281235 _26_ RTR  --- 14 message 32 [0 ffffffff c 800] ------- [12:255 -1:255 32 0] 
r 0.677281269 _4_ RTR  --- 14 message 32 [0 ffffffff c 800] ------- [12:255 -1:255 32 0] 
r 0.677281387 _9_ RTR  --- 14 message 32 [0 ffffffff c 800] ------- [12:255 -1:255 32 0] 
r 0.677281392 _28_ RTR  --- 14 message 32 [0 ffffffff c 800] ------- [12:255 -1:255 32 0] 
r 0.677281408 _5_ RTR  --- 14 message 32 [0 ffffffff c 800] ------- [12:255 -1:255 32 0] 
r 0.677281450 _25_ RTR  --- 14 message 32 [0 ffffffff c 800] ------- [12:255 -1:255 32 0] 
s 0.718234442 _1_ RTR  --- 15 message 32 [0 0 0 0] ------- [1:255 -1:255 32 0] 
r 0.721644528 _17_ RTR  --- 15 message 32 [0 ffffffff 1 800] ------- [1:255 -1:255 32 0] 
r 0.721644580 _30_ RTR  --- 15 message 32 [0 ffffffff 1 800] ------- [1:255 -1:255 32 0] 
r 0.721644600 _36_ RTR  --- 15 message 32 [0 ffffffff 1 800] ------- [1:255 -1:255 32 0] 
r 0.721644684 _19_ RTR  --- 15 message 32 [0 ffffffff 1 800] ------- [1:255 -1:255 32 0] 
r 0.721644777 _31_ RTR  --- 15 message 32 [0 ffffffff 1 800] ------- [1:255 -1:255 32 0] 
r 0.721644826 _37_ RTR  --- 15 message 32 [0 ffffffff 1 800] ------- [1:255 -1:255 32 0] 
r 0.721644841 _14_ RTR  --- 15 message 32 [0 ffffffff 1 800] ------- [1:255 -1:255 32 0] 
r 0.721644860 _26_ RTR  --- 15 message 32 [0 ffffffff 1 800] ------- [1:255 -1:255 32 0] 
r 0.721644876 _25_ RTR  --- 15 message 32 [0 ffffffff 1 800] ------- [1:255 -1:255 32 0] 
r 0.721644877 _33_ RTR  --- 15 message 32 [0 ffffffff 1 800] ------- [1:255 -1:255 32 0] 
r 0.721644880 _4_ RTR  --- 15 message 32 [0 ffffffff 1 800] ------- [1:255 -1:255 32 0] 
r 0.721644898 _39_ RTR  --- 15 message 32 [0 ffffffff 1 800] ------- [1:255 -1:255 32 0] 
r 0.721644903 _24_ RTR  --- 15 message 32 [0 ffffffff 1 800] ------- [1:255 -1:255 32 0] 
r 0.721644917 _22_ RTR  --- 15 message 32 [0 ffffffff 1 800] ------- [1:255 -1:255 32 0] 
r 0.721644922 _9_ RTR  --- 15 message 32 [0 ffffffff 1 800] ------- [1:255 -1:255 32 0] 
r 0.721644932 _16_ RTR  --- 15 message 32 [0 ffffffff 1 800] ------- [1:255 -1:255 32 0] 
r 0.721645024 _20_ RTR  --- 15 message 32 [0 ffffffff 1 800] ------- [1:255 -1:255 32 0] 
r 0.721645063 _0_ RTR  --- 15 message 32 [0 ffffffff 1 800] ------- [1:255 -1:255 32 0] 
r 0.721645080 _35_ RTR  --- 15 message 32 [0 ffffffff 1 800] ------- [1:255 -1:255 32 0] 
r 0.721645093 _38_ RTR  --- 15 message 32 [0 ffffffff 1 800] ------- [1:255 -1:255 32 0] 